120
Lattice="11.93044 0.0 0.0 -5.965219999999998 10.33206411832602 0.0 0.0 0.0 11.70219" Properties=species:S:1:pos:R:3:forces:R:3 energy=-683.2789795554758 stress="0.5801525502242261 -0.0003003695360071409 0.00021485089082359988 -0.0003003695360071409 0.5802186612280945 -0.00016275524043522525 0.00021485089082359988 -0.00016275524043522525 0.5742998130052297" pbc="T T T"
Sc       0.01005746       0.00464798       3.15502537       0.09038243       0.03581935      -0.09834960
Lu       0.00124452       0.00029907       9.01493150       0.02225694       0.01844338       0.03946228
Lu       0.01113879       3.44999236       2.69278026       0.08694529       0.07249632      -0.03309225
Sc       2.98423344       1.73498018       2.69831317       0.02173384       0.12070874      -0.06008188
Lu       2.98394084       1.72305866       8.54228520      -0.00607978       0.02828479      -0.05374282
Sc       0.00697055       3.46174768       8.54777324       0.08089900       0.14306780      -0.07827709
Fe       1.98892977       0.00196981      -0.04035211       0.02406073       0.02297107       0.20177653
Fe      -0.98826187       1.72154584      -0.04365894       0.03891062       0.01951875       0.16607462
Fe       1.99302373       3.44976503      -0.04689428       0.03359726       0.04065004       0.11857508
Fe       3.97624166      -0.00274625       5.81058031      -0.01033983      -0.02746329       0.19176235
Fe      -1.98464411       3.45214885       5.80256767       0.04028767       0.08650740       0.15749304
Fe       0.99301674       1.72199917       5.79487889       0.00128952       0.02522935       0.09528321
O        1.80036065       0.04662174       1.94627315       0.05034546       0.21595001      -0.29524483
O       -0.88562331       1.53377151       1.93650271       0.07491007      -0.03776018      -0.18476359
O        2.12275179       3.58439046       1.94915854       0.16008149      -0.10434821      -0.24518300
O        4.16596174      -0.04555496       7.79900896       0.00620355      -0.19607874      -0.26557645
O       -2.02187015       3.59219607       7.77537635       0.25855369      -0.00938511      -0.21388652
O        0.88045880       1.62146435       7.77559860      -0.08920473       0.26198307      -0.24105806
O        3.80257380       0.04505175       3.85844864      -0.21076681       0.16309459       0.15648001
O       -1.93934675       3.36513488       3.86040846       0.08321251      -0.00973760       0.02703284
O        1.09022978       1.80075098       3.84510157       0.21348801       0.08076637       0.15703214
O        2.16318250      -0.04423250       9.71088643       0.22888465      -0.12155867       0.18688881
O       -1.04321474       1.89959679       9.70998507       0.01862936       0.30426434       0.15740488
O        1.89300120       3.36394197       9.69826790      -0.18417402      -0.04304320       0.21065943
O        0.00576282      -0.00519164       5.48683765       0.02506080       0.04276384       0.09943677
O       -0.00449166       0.00824415      11.35926557       0.01164586       0.00086205      -0.04744868
O       -0.00578253       3.43825122       0.20218906       0.02834911       0.06500511       0.23300836
O        2.99098644       1.72243754       0.19466600      -0.02800275       0.04231624      -0.07470138
O        2.99254720       1.73215538       6.05040319       0.06037334       0.00715003       0.16544366
O       -0.00625826       3.44788794       6.04190111       0.06897080       0.06872146      -0.16703628
Sc      -2.98097758       5.16538572       3.15480403       0.05748265       0.01343103      -0.09064593
Lu      -2.96157023       5.17766501       9.01454724       0.15044463       0.09564087       0.03638689
Lu      -2.98357246       8.60875967       2.69067334       0.02936265      -0.00721656      -0.06512826
Sc       0.00439770       6.87856406       2.69907540       0.03513840      -0.06561334      -0.04089121
Sc       0.01350113       6.89354869       8.54612644       0.11559252       0.04793883      -0.09416061
Sc      -2.96510350       8.61004014       8.54796601       0.15293607      -0.00869831      -0.07877118
Fe      -0.98978112       5.17308070      -0.04713007       0.07132223       0.06364811       0.13965939
Fe      -3.96987592       6.88795888      -0.04376722       0.03759797       0.01299902       0.15448038
Fe      -0.99001126       8.60576752      -0.06300098       0.03621957      -0.04801765       0.02871344
Fe       0.99753954       5.17087388       5.80904542       0.03249508       0.02791517       0.15491504
Fe      -4.96770763       8.61785415       5.80275314       0.02740118       0.06321948       0.15748718
Fe      -1.98240175       6.88774960       5.80220838       0.04816433       0.01116374       0.11185381
O       -1.18391767       5.21016311       1.94740954       0.02022327       0.15590498      -0.28522871
O       -3.86879122       6.69852250       1.93744104       0.03692711      -0.10226416      -0.16594707
O       -0.88134728       8.71209036       1.92305893       0.09520914      -0.22883746      -0.27342958
O        1.15483933       5.16530559       7.81257247      -0.09890899       0.04507455      -0.29557021
O       -5.00239828       8.75985151       7.77559261       0.26256693      -0.00016108      -0.21327798
O       -2.04579242       6.79165495       7.79155781       0.20825315       0.28525619      -0.23136672
O        0.88107830       5.21016490       3.84516105      -0.08661625       0.13279384       0.18435359
O       -4.92493489       8.52764672       3.86165883       0.03844044      -0.09199323       0.05234340
O       -1.89257458       6.96660810       3.84689914       0.18448547       0.04421014       0.20976156
O       -0.79587576       5.16763507       9.69040263       0.34689167       0.05519497       0.20628609
O       -4.02801015       7.06519239       9.71034653       0.00520977       0.31374971       0.16438827
O       -1.06417235       8.48988706       9.67543194      -0.07501428      -0.18570134       0.17210297
O       -2.97772724       5.16288180       5.48530757       0.01854375       0.06286910       0.06672340
O       -2.98322364       5.17531767      11.36145518       0.07388261       0.02495558      -0.00636907
O       -2.98724500       8.60265031       0.20095735       0.02763907       0.02235571       0.20128103
O        0.01356671       6.88742650       0.19776678       0.04196407       0.00075841      -0.06387861
O        0.00763733       6.89593366       6.06128422       0.03926903      -0.03237817       0.20742908
O       -2.99077042       8.60942551       6.04387275       0.04223237      -0.01361653      -0.12146198
Lu       5.95476133       0.00452022       3.16486211      -0.07889322       0.00243812       0.05013923
Sc       5.96353892      -0.02022203       9.00428067      -0.03915087      -0.17142524      -0.10030814
Sc       5.95229615       3.44823799       2.69826830      -0.14230439       0.01833670      -0.05953267
Lu       8.94966097       1.73546303       2.69200900       0.01596354       0.06326871      -0.06356824
Lu       8.94894930       1.71118183       8.54096824       0.01374385      -0.05552154      -0.07495233
Lu       5.95219791       3.43642595       8.54292166      -0.09568298      -0.02525194      -0.04638706
Fe       7.94808671      -0.00529543      -0.06166613      -0.03794321      -0.04895573       0.06500447
Fe       4.97061143       1.72257109      -0.04267092      -0.00808661      -0.01502803       0.17854721
Fe       7.94896986       3.44860456      -0.03397755      -0.03253156       0.03273700       0.25812877
Fe       9.94674255      -0.00583950       5.80265529       0.02473015      -0.04567648       0.15695607
Fe       3.97294047       3.44984871       5.79160200      -0.03178422       0.03462087       0.03268077
Fe       6.95433094       1.72246961       5.80407179      -0.03840036       0.01010785       0.16140215
O        7.77852079       0.00140580       1.90902466       0.00349750       0.02207919      -0.23217692
O        5.02908116       1.62171175       1.94040034      -0.13586901       0.23310116      -0.19923801
O        8.01073578       3.63213437       1.94698012      -0.16037572       0.11728064      -0.27724197
O       10.08718603      -0.04975381       7.77681364      -0.15210089      -0.27544615      -0.21100014
O        3.86577572       3.63678029       7.78574635      -0.13420677       0.16098936      -0.23887290
O        6.84665915       1.52923105       7.78386035      -0.10267535      -0.19129712      -0.26576839
O        9.84579255      -0.00085987       3.86547814      -0.11852871      -0.01154301       0.15253838
O        4.04554978       3.32386379       3.82328734       0.08101129      -0.16543959       0.15898100
O        7.00913807       1.89585650       3.85932897      -0.03470191       0.28324042       0.16414578
O        8.07015687      -0.04447149       9.69510782       0.12793608      -0.18536080       0.13965778
O        4.92363642       1.80172151       9.71443506      -0.06860675       0.01186968       0.08916698
O        7.87544530       3.31200854       9.73166981      -0.07817101      -0.13573559       0.15198682
O        5.97252791      -0.01232157       5.51277062       0.02487928      -0.08080349       0.03781650
O        5.95719185       0.00651120      11.33505140      -0.05258928      -0.01935582       0.03698347
O        5.95918840       3.43432748       0.20091245      -0.03158355      -0.00633058       0.04723037
O        8.96059995       1.72190784       0.18984003       0.02175200      -0.00854181       0.01867857
O        8.95170568       1.73306963       6.04215054      -0.01030579       0.04090253       0.03522081
O        5.94933208       3.44278944       6.04741217      -0.08312338      -0.01864639       0.09891565
Sc       2.98107193       5.15653255       3.15566046      -0.03686369      -0.07454862      -0.08210411
Sc       2.96287838       5.17739817       9.00518163      -0.18071713       0.07552847      -0.10518845
Lu       2.97821837       8.59526215       2.69155096      -0.05278585      -0.11086335      -0.05963357
Lu       5.96809896       6.87601602       2.69419810       0.00031856      -0.07406483      -0.02870393
Lu       5.95570147       6.89531865       8.54069116      -0.05174939       0.02873040      -0.08039537
Sc       2.95981612       8.59439068       8.54902056      -0.20669872      -0.14261513      -0.05533555
Fe       4.96109156       5.15879423      -0.04057164      -0.08367440      -0.05307226       0.19018035
Fe       1.98409840       6.88140030      -0.05510880      -0.04327717      -0.06237187       0.06749748
Fe       4.96784438       8.61410649      -0.04630728      -0.03503089       0.00101898       0.17730692
Fe       6.96376416       5.16159557       5.78837210       0.01519704      -0.02730238       0.06682038
Fe       0.99251534       8.60196535       5.81871156      -0.00616402      -0.07035477       0.20016298
Fe       3.96561023       6.88319814       5.80944519      -0.10176926      -0.05039068       0.19750462
O        4.77961053       5.12275529       1.94867527      -0.03714703      -0.16516174      -0.24830907
O        2.04573783       6.69707841       1.94494914      -0.13325247      -0.20569474      -0.31744140
O        5.08303047       8.79908480       1.93292780       0.08525263       0.05743361      -0.26262490
O        7.13593794       5.16474344       7.75993439       0.00820367      -0.00611279      -0.24110218
O        0.91595713       8.74768443       7.81951376       0.05274079      -0.13901173      -0.16664544
O        3.84086073       6.74489767       7.79751174      -0.22925977       0.06447547      -0.28882863
O        6.84478254       5.12123644       3.84359212      -0.13989030      -0.15649943       0.13194185
O        1.04133666       8.43587183       3.86049705      -0.05551052      -0.28955197       0.20054883
O        4.02384868       6.96684320       3.86402408       0.03419092      -0.00082166       0.11213944
O        5.06591147       5.16533098       9.71788034       0.05857832       0.01486342       0.18229984
O        1.91967189       7.00659683       9.67234862      -0.12318346       0.14445655       0.09648334
O        4.84200429       8.48106917       9.71112291      -0.27524900      -0.12492687       0.17504292
O        2.98597574       5.15259089       5.47900958      -0.04317194      -0.05182613      -0.04160328
O        2.97411349       5.17682289      11.33000245      -0.05467034       0.02279973      -0.03677371
O        2.97492314       8.59351096       0.19804284      -0.04450660      -0.11013636       0.13139108
O        5.97580872       6.88661054       0.19126777      -0.00441768      -0.03693849       0.05983890
O        5.96710239       6.89738596       6.04015469      -0.07145519       0.00960680      -0.01167993
O        2.96778676       8.60933934       6.04830871      -0.06904525      -0.04088759      -0.02293771
